6
	Energy:       0.6657691
C          1.66046       -0.16638       -0.07094
H          2.75304       -0.16643       -0.09077
O          1.20396        0.80501        0.85227
H          1.29064       -1.15178        0.22288
H          1.28027        0.08154       -1.06473
H          1.55693        0.55870        1.72417
